/*--------------------------------*- C++ -*----------------------------------*\
  =========                 |
  \\      /  F ield         | OpenFOAM: The Open Source CFD Toolbox
   \\    /   O peration     | Website:  https://openfoam.org
    \\  /    A nd           | Version:  6
     \\/     M anipulation  |
\*---------------------------------------------------------------------------*/

FoamFile
{
    version     2.0;
    format      ascii;
    class       volSymmTensorField;
    location    "0";
    object      Rwall;
}

// * * * * * * * * * * * * * * * * * * * * * * * * * * * * * * * * * * * * * //

#include        "../setUp"

dimensions      [ 0 2 -2 0 0 0 0 ];

internalField   uniform (0.0 0.0 0.0 0.0 0.0 0.0);

boundaryField
{
    lower
    {
        type            SchumannGrotzbach;
        kappa           $kappa;
        z0              uniform $z0;
        betaM           $betaM;
        gammaM          $gammaM;
        averageType     $wallModelAverageType;
        value           uniform $Rwall;
    }
    upper
    {
        type            fixedValue;
        value           $internalField;
    }
    west 
    {
        type            cyclic;
        value           $internalField;
    }
    east 
    {
        type            cyclic;
        value           $internalField;
    }
    north 
    {
        type            cyclic;
        value           $internalField;
    }
    south
    {
        type            cyclic;
        value           $internalField;
    }
}


// ************************************************************************* //
