# vtk DataFile Version 2.0
sampleSurface
ASCII
DATASET POLYDATA
POINTS 20736 float
0 0 65
27.9720287323 0 65
0 27.9720287323 65
27.9720287323 27.9720287323 65
55.9440574646 0 65
0 55.9440574646 65
55.9440574646 27.9720287323 65
27.9720287323 55.9440574646 65
55.9440574646 55.9440574646 65
83.9160842896 0 65
0 83.9160842896 65
83.9160842896 27.9720287323 65
27.9720287323 83.9160842896 65
83.9160842896 55.9440574646 65
55.9440574646 83.9160842896 65
111.888114929 0 65
0 111.888114929 65
27.9720287323 111.888114929 65
111.888114929 27.9720287323 65
83.9160842896 83.9160842896 65
111.888114929 55.9440574646 65
55.9440574646 111.888114929 65
111.888114929 83.9160842896 65
83.9160842896 111.888114929 65
139.860137939 0 65
0 139.860137939 65
27.9720287323 139.860137939 65
139.860137939 27.9720287323 65
139.860137939 55.9440574646 65
55.9440574646 139.860137939 65
111.888114929 111.888114929 65
139.860137939 83.9160842896 65
83.9160842896 139.860137939 65
167.832168579 0 65
0 167.832168579 65
167.832168579 27.9720287323 65
27.9720287323 167.832168579 65
167.832168579 55.9440574646 65
55.9440574646 167.832168579 65
139.860137939 111.888114929 65
111.888114929 139.860137939 65
167.832168579 83.9160842896 65
83.9160842896 167.832168579 65
195.804199219 0 65
0 195.804199219 65
27.9720287323 195.804199219 65
195.804199219 27.9720287323 65
139.860137939 139.860137939 65
167.832168579 111.888114929 65
111.888114929 167.832168579 65
195.804199219 55.9440574646 65
55.9440574646 195.804199219 65
83.9160842896 195.804199219 65
195.804199219 83.9160842896 65
139.860137939 167.832168579 65
167.832168579 139.860137939 65
223.776229858 0 65
0 223.776229858 65
223.776229858 27.9720287323 65
195.804199219 111.888114929 65
27.9720287323 223.776229858 65
111.888114929 195.804199219 65
223.776229858 55.9440574646 65
55.9440574646 223.776229858 65
167.832168579 167.832168579 65
83.9160842896 223.776229858 65
223.776229858 83.9160842896 65
139.860137939 195.804199219 65
195.804199219 139.860137939 65
223.776229858 111.888114929 65
111.888114929 223.776229858 65
251.748245239 0 65
0 251.748245239 65
251.748245239 27.9720287323 65
27.9720287323 251.748245239 65
251.748245239 55.9440574646 65
55.9440574646 251.748245239 65
167.832168579 195.804199219 65
195.804199219 167.832168579 65
223.776229858 139.860137939 65
139.860137939 223.776229858 65
251.748245239 83.9160842896 65
83.9160842896 251.748245239 65
251.748245239 111.888114929 65
111.888114929 251.748245239 65
195.804199219 195.804199219 65
223.776229858 167.832168579 65
167.832168579 223.776229858 65
279.720275879 0 65
0 279.720275879 65
279.720275879 27.9720287323 65
27.9720287323 279.720275879 65
55.9440574646 279.720275879 65
279.720275879 55.9440574646 65
251.748245239 139.860137939 65
139.860137939 251.748245239 65
83.9160842896 279.720275879 65
279.720275879 83.9160842896 65
223.776229858 195.804199219 65
195.804199219 223.776229858 65
111.888114929 279.720275879 65
279.720275879 111.888114929 65
251.748245239 167.832168579 65
167.832168579 251.748245239 65
307.692321777 0 65
0 307.692321777 65
307.692321777 27.9720287323 65
27.9720287323 307.692321777 65
55.9440574646 307.692321777 65
307.692321777 55.9440574646 65
139.860137939 279.720275879 65
279.720275879 139.860137939 65
223.776229858 223.776229858 65
83.9160842896 307.692321777 65
195.804199219 251.748245239 65
251.748245239 195.804199219 65
307.692321777 83.9160842896 65
167.832168579 279.720275879 65
279.720275879 167.832168579 65
307.692321777 111.888114929 65
111.888114929 307.692321777 65
335.664337158 0 65
0 335.664337158 65
251.748245239 223.776229858 65
335.664337158 27.9720287323 65
27.9720287323 335.664337158 65
223.776229858 251.748245239 65
307.692321777 139.860137939 65
139.860137939 307.692321777 65
335.664337158 55.9440574646 65
55.9440574646 335.664337158 65
195.804199219 279.720275879 65
279.720275879 195.804199219 65
335.664337158 83.9160842896 65
83.9160842896 335.664337158 65
307.692321777 167.832168579 65
167.832168579 307.692321777 65
335.664337158 111.888114929 65
111.888114929 335.664337158 65
251.748245239 251.748245239 65
279.720275879 223.776229858 65
223.776229858 279.720275879 65
363.636352539 0 65
139.860137939 335.664337158 65
0 363.636352539 65
335.664337158 139.860137939 65
195.804199219 307.692321777 65
363.636352539 27.9720287323 65
307.692321777 195.804199219 65
27.9720287323 363.636352539 65
363.636352539 55.9440574646 65
55.9440574646 363.636352539 65
363.636352539 83.9160842896 65
83.9160842896 363.636352539 65
335.664337158 167.832168579 65
167.832168579 335.664337158 65
251.748245239 279.720275879 65
279.720275879 251.748245239 65
363.636352539 111.888114929 65
307.692321777 223.776229858 65
223.776229858 307.692321777 65
111.888114929 363.636352539 65
335.664337158 195.804199219 65
195.804199219 335.664337158 65
363.636352539 139.860137939 65
139.860137939 363.636352539 65
391.608398438 0 65
0 391.608398438 65
27.9720287323 391.608398438 65
391.608398438 27.9720287323 65
391.608398438 55.9440574646 65
55.9440574646 391.608398438 65
279.720275879 279.720275879 65
307.692321777 251.748245239 65
251.748245239 307.692321777 65
363.636352539 167.832168579 65
167.832168579 363.636352539 65
391.608398438 83.9160842896 65
83.9160842896 391.608398438 65
335.664337158 223.776229858 65
223.776229858 335.664337158 65
391.608398438 111.888114929 65
111.888114929 391.608398438 65
363.636352539 195.804199219 65
195.804199219 363.636352539 65
279.720275879 307.692321777 65
139.860137939 391.608398438 65
391.608398438 139.860137939 65
307.692321777 279.720275879 65
419.580413818 0 65
0 419.580413818 65
251.748245239 335.664337158 65
335.664337158 251.748245239 65
419.580413818 27.9720287323 65
27.9720287323 419.580413818 65
419.580413818 55.9440574646 65
55.9440574646 419.580413818 65
391.608398438 167.832168579 65
167.832168579 391.608398438 65
363.636352539 223.776229858 65
223.776229858 363.636352539 65
419.580413818 83.9160842896 65
83.9160842896 419.580413818 65
419.580413818 111.888114929 65
111.888114929 419.580413818 65
307.692321777 307.692321777 65
335.664337158 279.720275879 65
279.720275879 335.664337158 65
195.804199219 391.608398438 65
391.608398438 195.804199219 65
419.580413818 139.860137939 65
363.636352539 251.748245239 65
139.860137939 419.580413818 65
251.748245239 363.636352539 65
447.552459717 0 65
0 447.552459717 65
447.552459717 27.9720287323 65
27.9720287323 447.552459717 65
55.9440574646 447.552459717 65
447.552459717 55.9440574646 65
391.608398438 223.776229858 65
223.776229858 391.608398438 65
167.832168579 419.580413818 65
419.580413818 167.832168579 65
447.552459717 83.9160842896 65
83.9160842896 447.552459717 65
335.664337158 307.692321777 65
307.692321777 335.664337158 65
363.636352539 279.720275879 65
279.720275879 363.636352539 65
447.552459717 111.888114929 65
111.888114929 447.552459717 65
195.804199219 419.580413818 65
419.580413818 195.804199219 65
391.608398438 251.748245239 65
251.748245239 391.608398438 65
447.552459717 139.860137939 65
139.860137939 447.552459717 65
335.664337158 335.664337158 65
475.524475098 0 65
0 475.524475098 65
419.580413818 223.776229858 65
223.776229858 419.580413818 65
475.524475098 27.9720287323 65
363.636352539 307.692321777 65
307.692321777 363.636352539 65
27.9720287323 475.524475098 65
447.552459717 167.832168579 65
167.832168579 447.552459717 65
55.9440574646 475.524475098 65
475.524475098 55.9440574646 65
391.608398438 279.720275879 65
279.720275879 391.608398438 65
475.524475098 83.9160842896 65
83.9160842896 475.524475098 65
195.804199219 447.552459717 65
111.888114929 475.524475098 65
447.552459717 195.804199219 65
475.524475098 111.888114929 65
251.748245239 419.580413818 65
419.580413818 251.748245239 65
363.636352539 335.664337158 65
335.664337158 363.636352539 65
475.524475098 139.860137939 65
139.860137939 475.524475098 65
391.608398438 307.692321777 65
307.692321777 391.608398438 65
447.552459717 223.776229858 65
223.776229858 447.552459717 65
503.496490479 0 65
0 503.496490479 65
475.524475098 167.832168579 65
27.9720287323 503.496490479 65
419.580413818 279.720275879 65
167.832168579 475.524475098 65
503.496490479 27.9720287323 65
279.720275879 419.580413818 65
503.496490479 55.9440574646 65
55.9440574646 503.496490479 65
503.496490479 83.9160842896 65
83.9160842896 503.496490479 65
447.552459717 251.748245239 65
251.748245239 447.552459717 65
475.524475098 195.804199219 65
363.636352539 363.636352539 65
195.804199219 475.524475098 65
503.496490479 111.888114929 65
391.608398438 335.664337158 65
335.664337158 391.608398438 65
111.888114929 503.496490479 65
419.580413818 307.692321777 65
307.692321777 419.580413818 65
139.860137939 503.496490479 65
503.496490479 139.860137939 65
475.524475098 223.776229858 65
223.776229858 475.524475098 65
447.552459717 279.720275879 65
279.720275879 447.552459717 65
503.496490479 167.832168579 65
167.832168579 503.496490479 65
531.468505859 0 65
0 531.468505859 65
531.468505859 27.9720287323 65
27.9720287323 531.468505859 65
363.636352539 391.608398438 65
391.608398438 363.636352539 65
531.468505859 55.9440574646 65
55.9440574646 531.468505859 65
419.580413818 335.664337158 65
335.664337158 419.580413818 65
531.468505859 83.9160842896 65
475.524475098 251.748245239 65
251.748245239 475.524475098 65
83.9160842896 531.468505859 65
503.496490479 195.804199219 65
195.804199219 503.496490479 65
447.552459717 307.692321777 65
531.468505859 111.888114929 65
307.692321777 447.552459717 65
111.888114929 531.468505859 65
531.468505859 139.860137939 65
139.860137939 531.468505859 65
503.496490479 223.776229858 65
223.776229858 503.496490479 65
475.524475098 279.720275879 65
279.720275879 475.524475098 65
391.608398438 391.608398438 65
363.636352539 419.580413818 65
419.580413818 363.636352539 65
167.832168579 531.468505859 65
531.468505859 167.832168579 65
447.552459717 335.664337158 65
559.440551758 0 65
335.664337158 447.552459717 65
0 559.440551758 65
559.440551758 27.9720287323 65
[...]
CELL_DATA 40898
FIELD attributes 1
U 3 40898 float
6.24031257629 6.60046005249 0.000128971369122
6.24031257629 6.60046005249 0.000128971369122
6.24034023285 6.5535235405 0.000115847171401
6.24034023285 6.5535235405 0.000115847171401
6.24036741257 6.51494979858 9.43159902818e-05
6.24036741257 6.51494979858 9.43159902818e-05
6.24039030075 6.48659849167 6.56034681015e-05
6.24039030075 6.48659849167 6.56034681015e-05
6.2404050827 6.4698381424 3.17716767313e-05
6.2404050827 6.4698381424 3.17716767313e-05
6.24040937424 6.46547889709 -4.60305454908e-06
6.24040937424 6.46547889709 -4.60305454908e-06
6.24040269852 6.47373342514 -4.07309744332e-05
6.24040269852 6.47373342514 -4.07309744332e-05
6.24038600922 6.49420118332 -7.3761009844e-05
6.24038600922 6.49420118332 -7.3761009844e-05
6.24036169052 6.5258936882 -0.000101207908301
6.24036169052 6.5258936882 -0.000101207908301
6.24033403397 6.56728076935 -0.000121189586935
6.24033403397 6.56728076935 -0.000121189586935
6.24030733109 6.61636781693 -0.000132712419145
6.24030733109 6.61636781693 -0.000132712419145
6.24028682709 6.67079305649 -0.000135804555612
6.24028682709 6.67079305649 -0.000135804555612
6.24027681351 6.72794342041 -0.000131286884425
6.24027681351 6.72794342041 -0.000131286884425
6.24027967453 6.78507995605 -0.000120414399134
6.24027967453 6.78507995605 -0.000120414399134
6.24029350281 6.83946323395 -0.00010479897901
6.24029350281 6.83946323395 -0.00010479897901
6.24031448364 6.88848304749 -8.62561137183e-05
6.24031448364 6.88848304749 -8.62561137183e-05
6.2403383255 6.92978143692 -6.63375176373e-05
6.2403383255 6.92978143692 -6.63375176373e-05
6.24035930634 6.96136808395 -4.60234514321e-05
6.24035930634 6.96136808395 -4.60234514321e-05
6.24037456512 6.98171758652 -2.57579085883e-05
6.24037456512 6.98171758652 -2.57579085883e-05
6.24038076401 6.98984718323 -5.62496688872e-06
6.24038076401 6.98984718323 -5.62496688872e-06
6.24037742615 6.98536348343 1.44680643643e-05
6.24037742615 6.98536348343 1.44680643643e-05
6.24036502838 6.96848344803 3.46570268448e-05
6.24036502838 6.96848344803 3.46570268448e-05
6.24034500122 6.94002199173 5.49601754756e-05
6.24034500122 6.94002199173 5.49601754756e-05
6.24032115936 6.90135383606 7.51129482524e-05
6.24032115936 6.90135383606 7.51129482524e-05
6.24029827118 6.85434389114 9.43689519772e-05
6.24029827118 6.85434389114 9.43689519772e-05
6.24028015137 6.8012547493 0.000111384419142
6.24028015137 6.8012547493 0.000111384419142
6.24027204514 6.74463748932 0.000124420519569
6.24027204514 6.74463748932 0.000124420519569
6.24027633667 6.68720674515 0.000131796987262
6.24027633667 6.68720674515 0.000131796987262
6.24029159546 6.63171482086 0.000132085726364
6.24029159546 6.63171482086 0.000132085726364
6.24031496048 6.58082485199 0.000124166341266
6.24031496048 6.58082485199 0.000124166341266
6.24034166336 6.53698253632 0.000107607796963
6.24034166336 6.53698253632 0.000107607796963
6.24036598206 6.50230073929 8.30112476251e-05
6.24036598206 6.50230073929 8.30112476251e-05
6.2403845787 6.47845172882 5.19647073816e-05
6.2403845787 6.47845172882 5.19647073816e-05
6.24039363861 6.46658849716 1.67390862771e-05
6.24039363861 6.46658849716 1.67390862771e-05
6.24039173126 6.46728372574 -1.98169018404e-05
6.24039173126 6.46728372574 -1.98169018404e-05
6.24037981033 6.48050498962 -5.49726573809e-05
6.24037981033 6.48050498962 -5.49726573809e-05
6.24035835266 6.50561332703 -8.60035652295e-05
6.24035835266 6.50561332703 -8.60035652295e-05
6.24033069611 6.54139518738 -0.000110615801532
6.24033069611 6.54139518738 -0.000110615801532
6.2403011322 6.58612442017 -0.000127246457851
6.2403011322 6.58612442017 -0.000127246457851
6.240275383 6.63764715195 -0.000135311347549
6.240275383 6.63764715195 -0.000135311347549
6.24025774002 6.69348621368 -0.00013520225184
6.24025774002 6.69348621368 -0.00013520225184
6.24025201797 6.75096321106 -0.00012794380018
6.24025201797 6.75096321106 -0.00012794380018
6.2402586937 6.80732297897 -0.000114931921416
6.2402586937 6.80732297897 -0.000114931921416
6.240275383 6.85986280441 -9.79019678198e-05
6.240275383 6.85986280441 -9.79019678198e-05
6.2402973175 6.9060587883 -7.86228556535e-05
6.2402973175 6.9060587883 -7.86228556535e-05
6.24031972885 6.94368743896 -5.84330482525e-05
6.24031972885 6.94368743896 -5.84330482525e-05
6.2403383255 6.97093343735 -3.80814744858e-05
6.2403383255 6.97093343735 -3.80814744858e-05
6.24034976959 6.98648071289 -1.78467525984e-05
6.24034976959 6.98648071289 -1.78467525984e-05
6.24035167694 6.98957824707 2.26910287893e-06
6.24035167694 6.98957824707 2.26910287893e-06
6.24034452438 6.98007631302 2.2425689167e-05
6.24034452438 6.98007631302 2.2425689167e-05
6.24032831192 6.95843315125 4.26982660429e-05
6.24032831192 6.95843315125 4.26982660429e-05
6.24030637741 6.92569494247 6.30210561212e-05
6.24030637741 6.92569494247 6.30210561212e-05
6.24028253555 6.88344192505 8.29622367746e-05
6.24028253555 6.88344192505 8.29622367746e-05
6.24026060104 6.83371019363 0.000101537822047
6.24026060104 6.83371019363 0.000101537822047
6.24024629593 6.77889156342 0.00011719892791
6.24024629593 6.77889156342 0.00011719892791
6.24024295807 6.72161817551 0.000128179468447
6.24024295807 6.72161817551 0.000128179468447
6.24025249481 6.66463470459 0.000132899440359
6.24025249481 6.66463470459 0.000132899440359
6.2402715683 6.61067342758 0.000130030981381
6.2402715683 6.61067342758 0.000130030981381
6.2402973175 6.5623254776 0.000118670970551
6.2402973175 6.5623254776 0.000118670970551
6.24032402039 6.52191591263 9.87803869066e-05
6.24032402039 6.52191591263 9.87803869066e-05
6.24034690857 6.49139404297 7.13775662007e-05
6.24034690857 6.49139404297 7.13775662007e-05
6.24036216736 6.4722328186 3.83619553759e-05
6.24036216736 6.4722328186 3.83619553759e-05
6.2403678894 6.46535825729 2.19665344048e-06
6.2403678894 6.46535825729 2.19665344048e-06
6.24036216736 6.47110176086 -3.40704646078e-05
6.24036216736 6.47110176086 -3.40704646078e-05
6.24034643173 6.4891872406 -6.78499927744e-05
6.24034643173 6.4891872406 -6.78499927744e-05
6.24032306671 6.51874065399 -9.65390427154e-05
6.24032306671 6.51874065399 -9.65390427154e-05
6.24029493332 6.55833482742 -0.000118086805742
6.24029493332 6.55833482742 -0.000118086805742
6.24026679993 6.60606050491 -0.000131295397296
6.24026679993 6.60606050491 -0.000131295397296
6.24024438858 6.65962076187 -0.000135992740979
6.24024438858 6.65962076187 -0.000135992740979
6.24023199081 6.71644306183 -0.00013287361071
6.24023199081 6.71644306183 -0.00013287361071
6.23236894608 6.60049343109 0.00083855772391
6.23236894608 6.60049343109 0.00083855772391
6.2324461937 6.55355262756 0.000723810342606
6.2324461937 6.55355262756 0.000723810342606
6.23251342773 6.5149731636 0.000570897711441
6.23251342773 6.5149731636 0.000570897711441
6.23256540298 6.48661613464 0.000387416192098
6.23256540298 6.48661613464 0.000387416192098
6.23259592056 6.46984958649 0.000182908610441
6.23259592056 6.46984958649 0.000182908610441
6.23260354996 6.4654841423 -3.18440215779e-05
6.23260354996 6.4654841423 -3.18440215779e-05
6.23258686066 6.47373151779 -0.000245379895205
6.23258686066 6.47373151779 -0.000245379895205
6.2325463295 6.49419260025 -0.000446508493042
6.2325463295 6.49419260025 -0.000446508493042
6.23248577118 6.52587795258 -0.000624715292361
6.23248577118 6.52587795258 -0.000624715292361
6.23241090775 6.56725788116 -0.000770934508182
6.23241090775 6.56725788116 -0.000770934508182
6.23232936859 6.61633777618 -0.000878148770425
6.23232936859 6.61633777618 -0.000878148770425
6.23224830627 6.67075681686 -0.00094178353902
6.23224830627 6.67075681686 -0.00094178353902
6.23217535019 6.72790193558 -0.000959687982686
6.23217535019 6.72790193558 -0.000959687982686
6.23211574554 6.7850356102 -0.000931932998355
6.23211574554 6.7850356102 -0.000931932998355
6.23207092285 6.83941841125 -0.000860838976223
6.23207092285 6.83941841125 -0.000860838976223
6.23203992844 6.88844108582 -0.000750836217776
6.23203992844 6.88844108582 -0.000750836217776
6.23201942444 6.92974472046 -0.000607882684562
6.23201942444 6.92974472046 -0.000607882684562
6.23200750351 6.96133899689 -0.000438927469077
6.23200750351 6.96133899689 -0.000438927469077
6.23200130463 6.98169851303 -0.000251632212894
6.23200130463 6.98169851303 -0.000251632212894
6.23200082779 6.989839077 -5.41765548405e-05
6.23200082779 6.989839077 -5.41765548405e-05
6.23200416565 6.98536634445 0.000144967867527
6.23200416565 6.98536634445 0.000144967867527
6.23201179504 6.96849679947 0.000337317993399
6.23201179504 6.96849679947 0.000337317993399
6.23202514648 6.94004487991 0.000514636863954
6.23202514648 6.94004487991 0.000514636863954
6.23204612732 6.90138435364 0.000669160857797
6.23204612732 6.90138435364 0.000669160857797
6.23207616806 6.85438013077 0.000793730432633
6.23207616806 6.85438013077 0.000793730432633
6.23211812973 6.80129480362 0.000881946412846
6.23211812973 6.80129480362 0.000881946412846
6.232172966 6.74467849731 0.000928616791498
6.232172966 6.74467849731 0.000928616791498
6.23223972321 6.68724679947 0.000930429552682
6.23223972321 6.68724679947 0.000930429552682
6.23231506348 6.63175296783 0.000886223919224
6.23231506348 6.63175296783 0.000886223919224
6.23239278793 6.58085870743 0.000797000189777
6.23239278793 6.58085870743 0.000797000189777
6.23246526718 6.53701162338 0.000666237494443
6.23246526718 6.53701162338 0.000666237494443
6.23252534866 6.50232362747 0.000500074063893
6.23252534866 6.50232362747 0.000500074063893
6.23256778717 6.47846889496 0.000306966219796
6.23256778717 6.47846889496 0.000306966219796
6.23258781433 6.46659898758 9.70489199972e-05
6.23258781433 6.46659898758 9.70489199972e-05
6.2325835228 6.46728754044 -0.000118559255498
6.2325835228 6.46728754044 -0.000118559255498
6.2325553894 6.4805021286 -0.000328450259985
6.2325553894 6.4805021286 -0.000328450259985
6.2325053215 6.50560283661 -0.000521580921486
6.2325053215 6.50560283661 -0.000521580921486
6.23243713379 6.54137802124 -0.000687950872816
6.23243713379 6.54137802124 -0.000687950872816
6.23235750198 6.58610010147 -0.000819250300992
6.23235750198 6.58610010147 -0.000819250300992
6.23227405548 6.63761615753 -0.000909412512556
6.23227405548 6.63761615753 -0.000909412512556
6.23219394684 6.69344902039 -0.000954857387114
6.23219394684 6.69344902039 -0.000954857387114
6.23212528229 6.75092124939 -0.000954336952418
6.23212528229 6.75092124939 -0.000954336952418
6.23207092285 6.80727863312 -0.000908811227418
6.23207092285 6.80727863312 -0.000908811227418
6.23203086853 6.85981941223 -0.000821491878014
6.23203086853 6.85981941223 -0.000821491878014
6.23200368881 6.90601921082 -0.000697499956004
6.23200368881 6.90601921082 -0.000697499956004
6.23198604584 6.94365406036 -0.000543237663805
6.23198604584 6.94365406036 -0.000543237663805
6.23197650909 6.97090864182 -0.000365963409422
6.23197650909 6.97090864182 -0.000365963409422
6.23197221756 6.98646640778 -0.000173570238985
6.23197221756 6.98646640778 -0.000173570238985
6.2319726944 6.98957490921 2.56167913903e-05
6.2319726944 6.98957490921 2.56167913903e-05
6.23197746277 6.98008346558 0.000223076349357
6.23197746277 6.98008346558 0.000223076349357
6.23198747635 6.95845079422 0.000410403124988
6.23198747635 6.95845079422 0.000410403124988
6.23200321198 6.92572116852 0.000579528568778
6.23200321198 6.92572116852 0.000579528568778
6.23202753067 6.88347530365 0.000722916738596
6.23202753067 6.88347530365 0.000722916738596
6.23206233978 6.83374786377 0.000833683181554
6.23206233978 6.83374786377 0.000833683181554
6.23210906982 6.77893209457 0.000905834836885
6.23210906982 6.77893209457 0.000905834836885
6.23216915131 6.7216591835 0.000934859679546
6.23216915131 6.7216591835 0.000934859679546
6.23224020004 6.66467428207 0.000918306526728
6.23224020004 6.66467428207 0.000918306526728
6.23231744766 6.61070966721 0.000855862745084
6.23231744766 6.61070966721 0.000855862745084
6.23239421844 6.56235694885 0.000749471830204
6.23239421844 6.56235694885 0.000749471830204
6.232462883 6.52194213867 0.000603681721259
6.232462883 6.52194213867 0.000603681721259
6.23251724243 6.49141407013 0.000425608712249
6.23251724243 6.49141407013 0.000425608712249
6.23255205154 6.47224664688 0.000224423536565
6.23255205154 6.47224664688 0.000224423536565
6.23256254196 6.46536540985 1.05499475467e-05
6.23256254196 6.46536540985 1.05499475467e-05
6.23254871368 6.4711022377 -0.000203803414479
6.23254871368 6.4711022377 -0.000203803414479
6.23251247406 6.48918056488 -0.000408168591093
6.23251247406 6.48918056488 -0.000408168591093
6.23245477676 6.51872682571 -0.000591687916312
6.23245477676 6.51872682571 -0.000591687916312
6.23238182068 6.55831384659 -0.000744899793062
6.23238182068 6.55831384659 -0.000744899793062
6.23230028152 6.60603237152 -0.000860325118992
6.23230028152 6.60603237152 -0.000860325118992
6.23221826553 6.6595864296 -0.000932886265218
6.23221826553 6.6595864296 -0.000932886265218
6.23214292526 6.71640300751 -0.000959966157097
6.23214292526 6.71640300751 -0.000959966157097
6.21219587326 6.6005859375 0.00150789797772
6.21219587326 6.6005859375 0.00150789797772
6.21231985092 6.55363416672 0.00129679241218
6.21231985092 6.55363416672 0.00129679241218
6.2124247551 6.51504039764 0.0010195808718
6.2124247551 6.51504039764 0.0010195808718
6.21250343323 6.48666572571 0.000689880398568
6.21250343323 6.48666572571 0.000689880398568
6.21254968643 6.4698805809 0.000324279419146
6.21254968643 6.4698805809 0.000324279419146
6.21256017685 6.46549510956 -5.87451868341e-05
6.21256017685 6.46549510956 -5.87451868341e-05
6.21253442764 6.47372198105 -0.000439623079728
6.21253442764 6.47372198105 -0.000439623079728
6.21247148514 6.49416303635 -0.000799296831246
6.21247148514 6.49416303635 -0.000799296831246
6.21237802505 6.52582883835 -0.00111971306615
6.21237802505 6.52582883835 -0.00111971306615
6.21225976944 6.5671916008 -0.00138504151255
6.21225976944 6.5671916008 -0.00138504151255
6.21212625504 6.61625623703 -0.00158257980365
6.21212625504 6.61625623703 -0.00158257980365
6.2119884491 6.67066192627 -0.00170340854675
6.2119884491 6.67066192627 -0.00170340854675
6.21185588837 6.72779798508 -0.0017425500555
6.21185588837 6.72779798508 -0.0017425500555
6.21173763275 6.78492641449 -0.00169888499659
6.21173763275 6.78492641449 -0.00169888499659
6.21163702011 6.83931112289 -0.00157533783931
6.21163702011 6.83931112289 -0.00157533783931
6.21155548096 6.88834142685 -0.00137879885733
6.21155548096 6.88834142685 -0.00137879885733
6.21149301529 6.92965936661 -0.0011193966493
6.21149301529 6.92965936661 -0.0011193966493
6.21144866943 6.96127223969 -0.000809726829175
6.21144866943 6.96127223969 -0.000809726829175
6.21142244339 6.9816532135 -0.000464286509668
6.21142244339 6.9816532135 -0.000464286509668
6.21141433716 6.98981809616 -9.89388936432e-05
6.21141433716 6.98981809616 -9.89388936432e-05
6.2114238739 6.98537015915 0.000269703246886
6.2114238739 6.98537015915 0.000269703246886
6.21145105362 6.96852445602 0.000624955573585
6.21145105362 6.96852445602 0.000624955573585
6.21149635315 6.94009447098 0.000950730813202
6.21149635315 6.94009447098 0.000950730813202
6.21155929565 6.90145301819 0.00123214896303
6.21155929565 6.90145301819 0.00123214896303
6.21164035797 6.85446357727 0.00145597895607
6.21164035797 6.85446357727 0.00145597895607
6.21173906326 6.80138921738 0.00161103741266
6.21173906326 6.80138921738 0.00161103741266
6.21185302734 6.74477958679 0.0016888838727
6.21185302734 6.74477958679 0.0016888838727
6.21197938919 6.68734931946 0.00168477033731
6.21197938919 6.68734931946 0.00168477033731
6.21211099625 6.63185167313 0.00159793451894
6.21211099625 6.63185167313 0.00159793451894
6.21223974228 6.58094930649 0.00143145117909
6.21223974228 6.58094930649 0.00143145117909
6.21235513687 6.53708982468 0.00119251268916
6.21235513687 6.53708982468 0.00119251268916
6.21244907379 6.50238609314 0.000892497890163
6.21244907379 6.50238609314 0.000892497890163
6.21251392365 6.47851324081 0.000546339899302
6.21251392365 6.47851324081 0.000546339899302
6.21254444122 6.46662378311 0.000171540523297
6.21254444122 6.46662378311 0.000171540523297
6.21253824234 6.46729230881 -0.000212940532947
6.21253824234 6.46729230881 -0.000212940532947
6.212495327 6.48048591614 -0.000587622285821
6.212495327 6.48048591614 -0.000587622285821
6.21241855621 6.50556707382 -0.000933639414143
6.21241855621 6.50556707382 -0.000933639414143
6.2123131752 6.54132318497 -0.00123373803217
6.2123131752 6.54132318497 -0.00123373803217
6.21218633652 6.58602905273 -0.00147324521095
6.21218633652 6.58602905273 -0.00147324521095
6.21204853058 6.63752985001 -0.00164091831539
6.21204853058 6.63752985001 -0.00164091831539
6.21191072464 6.69335126877 -0.00172942446079
6.21191072464 6.69335126877 -0.00172942446079
6.21178197861 6.75081539154 -0.00173532788176
6.21178197861 6.75081539154 -0.00173532788176
6.21166992188 6.80717039108 -0.00165909703355
6.21166992188 6.80717039108 -0.00165909703355
6.21157598495 6.85971546173 -0.00150529481471
6.21157598495 6.85971546173 -0.00150529481471
6.21150159836 6.90592575073 -0.00128221174236
6.21150159836 6.90592575073 -0.00128221174236
6.21144580841 6.94357633591 -0.00100104126614
6.21144580841 6.94357633591 -0.00100104126614
6.21140813828 6.97085094452 -0.000675200775731
6.21140813828 6.97085094452 -0.000675200775731
6.21138858795 6.98643112183 -0.000319801591104
6.21138858795 6.98643112183 -0.000319801591104
6.21138715744 6.98956441879 4.89212470711e-05
6.21138715744 6.98956441879 4.89212470711e-05
6.2114033699 6.98009729385 0.000414202775573
6.2114033699 6.98009729385 0.000414202775573
6.21143770218 6.95848751068 0.000759556423873
6.21143770218 6.95848751068 0.000759556423873
6.21149015427 6.92577886581 0.0010693136137
6.21149015427 6.92577886581 0.0010693136137
6.21156024933 6.88355016708 0.00132920348551
6.21156024933 6.88355016708 0.00132920348551
6.2116484642 6.83383655548 0.00152675795835
6.2116484642 6.83383655548 0.00152675795835
6.21175336838 6.77902984619 0.00165177905001
6.21175336838 6.77902984619 0.00165177905001
6.2118730545 6.72176074982 0.00169720523991
6.2118730545 6.72176074982 0.00169720523991
6.21200275421 6.66477537155 0.00165990029927
6.21200275421 6.66477537155 0.00165990029927
6.2121348381 6.61080551147 0.00154063373338
6.2121348381 6.61080551147 0.00154063373338
6.2122592926 6.56244277954 0.00134407996666
6.2122592926 6.56244277954 0.00134407996666
6.21236753464 6.52201414108 0.00107913499232
6.21236753464 6.52201414108 0.00107913499232
6.21245098114 6.49146938324 0.000758682261221
6.21245098114 6.49146938324 0.000758682261221
6.21250343323 6.47228240967 0.000398745149141
6.21250343323 6.47228240967 0.000398745149141
6.21251964569 6.46538114548 1.72153686435e-05
6.21251964569 6.46538114548 1.72153686435e-05
6.21249866486 6.47109746933 -0.000365122075891
6.21249866486 6.47109746933 -0.000365122075891
6.21244287491 6.48915576935 -0.00073037634138
6.21244287491 6.48915576935 -0.00073037634138
6.2123541832 6.5186829567 -0.00105993787292
6.2123541832 6.5186829567 -0.00105993787292
6.21223974228 6.55825185776 -0.00133737083524
6.21223974228 6.55825185776 -0.00133737083524
6.21210813522 6.60595417023 -0.00154926942196
6.21210813522 6.60595417023 -0.00154926942196
6.21196985245 6.65949440002 -0.00168592564296
6.21196985245 6.65949440002 -0.00168592564296
6.21183538437 6.71630096436 -0.0017415820621
6.21183538437 6.71630096436 -0.0017415820621
6.18076896667 6.60073137283 0.00210419343784
6.18076896667 6.60073137283 0.00210419343784
6.18093347549 6.55376243591 0.00180647452362
6.18093347549 6.55376243591 0.00180647452362
6.18107175827 6.51514577866 0.00141792825889
6.18107175827 6.51514577866 0.00141792825889
6.18117427826 6.486743927 0.000957546348218
6.18117427826 6.486743927 0.000957546348218
6.1812338829 6.46992778778 0.000448181381216
6.1812338829 6.46992778778 0.000448181381216
6.18124771118 6.46551036835 -8.48642521305e-05
6.18124771118 6.46551036835 -8.48642521305e-05
6.18121385574 6.47370433807 -0.000614918360952
6.18121385574 6.47370433807 -0.000614918360952