/*--------------------------------*- C++ -*----------------------------------*\
| =========                 |                                                 |
| \\      /  F ield         | OpenFOAM: The Open Source CFD Toolbox           |
|  \\    /   O peration     | Version:  1.6                                   |
|   \\  /    A nd           | Web:      http://www.OpenFOAM.org               |
|    \\/     M anipulation  |                                                 |
\*---------------------------------------------------------------------------*/
FoamFile
{
    version     2.0;
    format      ascii;
    class       volVectorField;
   location    "0000";
    object      U;
}
// * * * * * * * * * * * * * * * * * * * * * * * * * * * * * * * * * * * * * //

#include        "include/initialConditions"
 
dimensions      [0 1 -1 0 0 0 0];
 
internalField   uniform $U0;

boundaryField
{
    lower
    {
        type            velocityABLWallFunction;
        print           true;
        U               U;
        value           uniform $U0;
    }
    upper
    {
        type            slip;
    }
    west
    {
        type            cyclic;
    }
    east
    {
        type            cyclic;
    }
    south
    {
        type            cyclic;
    }
    north
    {
        type            cyclic;
    }
}



// ************************************************************************* //
